
Predictions were generated on 27-Apr-2026 at 13:06:40 using OpenFAST, compiled on Mar 13 2026 at 19:00:22 as a 64-bit application using single precision at commit v5.0.0
 linked with  NWTC Subroutine Library; ElastoDyn

Description from the FAST input file: FAST Certification Test #18: NREL 5.0 MW Baseline Wind Turbine (Onshore)

Time	ConvIter	ConvError	NumUJac	Q_B1F1	Q_GeAz	Q_TFA1	Q_TSS1	Q_TFA2	Q_TSS2	OoPDefl1	IPDefl1	TwstDefl1	BldPitch1	Azimuth	RotSpeed	GenSpeed	TTDspFA	TTDspSS	TTDspTwst	Spn2MLxb1	Spn2MLyb1	RootFxb1	RootFyb1	RootFzb1	RootMxb1	RootMyb1	RootMzb1	RotTorq	LSSGagMya	LSSGagMza	YawBrFxp	YawBrFyp	YawBrFzp	YawBrMxp	YawBrMyp	YawBrMzp	TwrBsFxt	TwrBsFyt	TwrBsFzt	TwrBsMxt	TwrBsMyt	TwrBsMzt
(s)	(-)	(-)	(-)	(m)	(rad)	(m)	(m)	(m)	(m)	(m)	(m)	(deg)	(deg)	(deg)	(rpm)	(rpm)	(m)	(m)	(deg)	(kN-m)	(kN-m)	(kN)	(kN)	(kN)	(kN-m)	(kN-m)	(kN-m)	(kN-m)	(kN-m)	(kN-m)	(kN)	(kN)	(kN)	(kN-m)	(kN-m)	(kN-m)	(kN)	(kN)	(kN)	(kN-m)	(kN-m)	(kN-m)
    0.0000	.000000	.000000	1.000000	.000000	4.712389	.000000	.000000	.000000	.000000	.000000	.000000	.000000	.000000	.000000	12.10000	1173.700	.000000	.000000	.000000	-.4867441E-14	-.2466033	.1539209	.6624062E-15	16.06960	-.1991937E-13	2.863263	.1170767E-20	-.2042199E-13	-1051.800	-.2016008E-12	-38.18049	.3612767E-14	-2886.875	-.2893424E-13	1599.543	-.1777725E-13	86.91435	.3612767E-14	-6294.295	-.3454126E-12	4353.589	-.1777725E-13
    0.0063	2.000000	.1469838E-05	1.000000	.2452913E-04	4.720308	.000000	.000000	.4856004E-06	.000000	.2455876E-04	.1426270E-16	.000000	.000000	.4537431	12.10001	1173.701	.4856004E-06	.000000	.000000	.2082922	.2218379	.1801668	-.2847420E-01	16.07003	.8546882	4.119674	-.2082034E-06	.8763306	-1050.380	8.710090	-38.01737	-.1556786	-2886.902	1.246579	1601.500	.8051459	86.64137	-.1556786	-6294.323	14.88403	4348.515	.8051453
    0.0125	2.000000	.6809366E-04	.000000	.1144187E-03	4.728228	.000000	.000000	.2422134E-05	.000000	.1145568E-03	.2854803E-16	.000000	.000000	.9074862	12.10002	1173.702	.2422134E-05	.000000	.000000	.4153907	1.910665	.2747002	-.5687363E-01	16.07149	1.706048	8.647313	-.1633576E-05	1.749302	-1045.295	17.43425	-37.44803	-.3113577	-2886.996	2.498760	1608.469	1.712466	85.69938	-.3113577	-6294.417	29.77370	4331.446	1.712460
    0.0188	3.000000	.3550151E-07	.000000	.2642828E-03	4.736147	.000000	.000000	.6272371E-05	.000000	.2646020E-03	-.5049264E-16	.000000	.000000	1.361257	12.10005	1173.705	.6272371E-05	.000000	.000000	.6234201	4.697467	.4312904	-.8529370E-01	16.07414	2.559308	16.13178	-.5721414E-05	2.624158	-1036.816	26.14559	-36.39334	-.4672120	-2887.172	3.765898	1620.486	2.765400	83.89664	-.4672120	-6294.592	44.69368	4296.087	2.765377
    0.0250	3.000000	.4704365E-08	.000000	.4250237E-03	4.744067	.000000	.000000	.1199137E-04	.000000	.4255370E-03	-.2528912E-15	.000000	.000000	1.815000	12.10008	1173.708	.1199137E-04	.000000	.000000	.8324655	7.666757	.6003035	-.1137206	16.07810	3.414360	24.15431	-.1240715E-04	3.500775	-1027.410	34.83578	-34.85701	-.6232420	-2887.437	5.047242	1635.156	3.956767	81.08213	-.6232420	-6294.855	59.64328	4232.543	3.956706
    0.0312	3.000000	.6109765E-08	.000000	.5457399E-03	4.751987	.000000	.000000	.1951103E-04	.000000	.5463990E-03	.2643820E-15	.000000	.000000	2.268743	12.10013	1173.713	.1951103E-04	.000000	.000000	1.041990	9.875089	.7305583	-.1421063	16.08345	4.269434	30.22162	-.1988354E-04	4.377353	-1019.625	43.49548	-32.84856	-.7793452	-2887.796	6.332979	1649.983	5.197170	77.11266	-.7793452	-6295.213	74.60370	4130.973	5.197047
    0.0375	3.000000	.2321515E-08	.000000	.5915698E-03	4.759906	.000000	.000000	.2873831E-04	.000000	.5922842E-03	.3980475E-15	.000000	.000000	2.722513	12.10019	1173.718	.2873831E-04	.000000	.000000	1.250942	10.68182	.7872308	-.1703756	16.09022	5.121425	32.63908	-.2578613E-04	5.250750	-1015.202	52.11517	-30.38708	-.9353555	-2888.253	7.608133	1663.215	6.354812	71.91824	-.9353555	-6295.668	89.54543	3985.484	6.354594
    0.0438	3.000000	.3050896E-07	.000000	.5557747E-03	4.767826	.000000	.000000	.3955458E-04	.000000	.5564459E-03	-.4039007E-15	.000000	.000000	3.176256	12.10026	1173.725	.3955458E-04	.000000	.000000	1.458065	9.971145	.7638772	-.1984447	16.09836	5.966746	31.09708	-.2807988E-04	6.117340	-1014.476	60.68638	-27.50351	-1.091115	-2888.801	8.859347	1674.418	7.321726	65.54577	-1.091115	-6296.215	104.4413	3796.741	7.321377
    0.0500	3.000000	.3861893E-08	.000000	.4618366E-03	4.775745	.000000	.000000	.5181687E-04	.000000	.4623944E-03	.1468033E-15	.000000	.000000	3.630027	12.10033	1173.732	.5181687E-04	.000000	.000000	1.662292	8.187858	.6843715	-.2262459	16.10772	6.802390	26.76543	-.2688027E-04	6.974087	-1016.284	69.20299	-24.24036	-1.246550	-2889.430	10.08159	1684.556	8.076591	58.16454	-1.246550	-6296.843	119.2797	3572.325	8.076071
    0.0563	3.000000	.6367318E-08	.000000	.3548898E-03	4.783665	.000000	.000000	.6536100E-04	.000000	.3553184E-03	-.4775322E-15	.000000	.000000	4.083797	12.10042	1173.741	.6536100E-04	.000000	.000000	1.863074	6.175248	.5941342	-.2537442	16.11809	7.626823	21.86550	-.2308188E-04	7.819445	-1018.396	77.66179	-20.64934	-1.401709	-2890.124	11.28168	1695.584	8.713709	50.03305	-1.401709	-6297.534	134.0719	3324.805	8.712973
    0.0625	3.000000	.7920237E-08	.000000	.2855622E-03	4.791584	.000000	.000000	.8000620E-04	.000000	.2859071E-03	-.6555709E-15	.000000	.000000	4.537568	12.10052	1173.750	.8000620E-04	.000000	.000000	2.060528	4.873367	.5438054	-.2809450	16.12922	8.440341	18.87371	-.2053948E-04	8.653704	-1018.324	86.06239	-16.78707	-1.556753	-2890.865	12.47664	1709.684	9.420849	41.43713	-1.556753	-6298.275	148.8488	3068.121	9.419852
    0.0688	3.000000	.7721336E-08	.000000	.2919580E-03	4.799504	.000000	.000000	.9556009E-04	.000000	.2923106E-03	.4356966E-15	.000000	.000000	4.991338	12.10063	1173.761	.9556009E-04	.000000	.000000	2.255363	4.984628	.5711456	-.3078890	16.14092	9.244845	19.63875	-.2320481E-04	9.478788	-1014.222	94.40602	-12.71059	-1.711895	-2891.637	13.68739	1728.413	10.41034	32.62234	-1.711895	-6299.048	163.6502	2813.606	10.40903
    0.0750	3.000000	.6376446E-08	.000000	.3861334E-03	4.807424	.000000	.000000	.1118232E-03	.000000	.3865998E-03	.4184305E-15	.000000	.000000	5.445108	12.10074	1173.772	.1118232E-03	.000000	.000000	2.448596	6.724647	.6875515	-.3346333	16.15302	10.04306	24.72379	-.3316322E-04	10.29743	-1005.551	102.6943	-8.473785	-1.867305	-2892.429	14.92980	1752.075	11.82895	23.74279	-1.867305	-6299.839	178.5069	2567.010	11.82728
    0.0813	3.000000	.4372097E-08	.000000	.5498041E-03	4.815344	.000000	.000000	.1285922E-03	.000000	.5504681E-03	-.5483420E-15	.000000	.000000	5.898879	12.10087	1173.785	.1285922E-03	.000000	.000000	2.641181	9.745605	.8739103	-.3612285	16.16546	10.83747	33.20420	-.5167816E-04	11.11215	-993.2862	110.9278	-4.126132	-2.023031	-2893.233	16.20712	1779.534	13.68400	14.84522	-2.023031	-6300.645	193.4261	2327.578	13.68192
    0.0875	2.000000	.4003167E-04	.000000	.7407439E-03	4.823264	.000000	.000000	.1456615E-03	.000000	.7416385E-03	.1411309E-15	.000000	.000000	6.352677	12.10101	1173.798	.1456615E-03	.000000	.000000	2.833659	13.25813	1.087197	-.3877013	16.17824	11.62946	42.98941	-.7373126E-04	11.92433	-979.5880	119.1057	.2864252	-2.178956	-2894.050	17.50683	1808.536	15.81949	5.891989	-2.178956	-6301.462	208.3854	2089.458	15.81695
    0.0938	2.000000	.6480167E-04	.000000	.9075737E-03	4.831184	.000000	.000000	.1628232E-03	.000000	.9086698E-03	.1236406E-15	.000000	.000000	6.806474	12.10115	1173.812	.1628232E-03	.000000	.000000	3.025987	16.30791	1.275453	-.4140471	16.19135	12.41886	51.55324	-.9690044E-04	12.73378	-967.0613	127.2264	4.718855	-2.334831	-2894.876	18.80403	1836.406	17.95813	-3.185129	-2.334831	-6302.289	223.3378	1844.927	17.95508
    0.1000	3.000000	.1663442E-08	.000000	.1007684E-02	4.839105	.000000	.000000	.1798677E-03	.000000	.1008901E-02	-.5919761E-15	.000000	.000000	7.260245	12.10131	1173.827	.1798677E-03	.000000	.000000	3.217597	18.10872	1.395816	-.4402324	16.20480	13.20413	56.81321	-.1132325E-03	13.53898	-957.8593	135.2890	9.123775	-2.490357	-2895.710	20.07019	1860.905	19.79832	-12.42007	-2.490357	-6303.126	238.2286	1588.276	19.79473
    0.1063	3.000000	.2189618E-06	.000000	.1021969E-02	4.847025	.000000	.000000	.1965835E-03	.000000	.1023203E-02	.5987235E-15	.000000	.000000	7.714070	12.10148	1173.843	.1965835E-03	.000000	.000000	3.407628	18.31433	1.429248	-.4662167	16.21852	13.98315	57.84869	-.1223949E-03	14.33777	-952.9547	143.2950	13.44917	-2.645298	-2896.544	21.28452	1880.915	21.13186	-21.76030	-2.645298	-6303.963	253.0162	1318.951	21.12769
    0.1125	3.000000	.1970904E-07	.000000	.9612170E-03	4.854945	.000000	.000000	.2127591E-03	.000000	.9623779E-03	-.1359041E-14	.000000	.000000	8.167868	12.10165	1173.860	.2127591E-03	.000000	.000000	3.595340	17.13441	1.386807	-.4919761	16.23236	14.75422	55.20678	-.1214807E-03	15.12847	-951.8268	151.2499	17.63795	-2.799581	-2897.366	22.44320	1896.727	21.93601	-31.04576	-2.799581	-6304.787	267.6905	1042.856	21.93125
    0.1188	3.000000	.7183311E-08	.000000	.8619566E-03	4.862866	.000000	.000000	.2281865E-03	.000000	.8629976E-03	-.6349672E-15	.000000	.000000	8.621693	12.10184	1173.878	.2281865E-03	.000000	.000000	3.780422	15.25414	1.305312	-.5175157	16.24611	15.51696	50.69047	-.1139845E-03	15.91071	-952.6760	159.1636	21.62977	-2.953333	-2898.159	23.56269	1909.842	22.40025	-40.02666	-2.953333	-6305.584	282.2792	771.3478	22.39488
    0.1250	3.000000	.3535762E-07	.000000	.7732722E-03	4.870787	.000000	.000000	.2426654E-03	.000000	.7742061E-03	-.2371269E-16	.000000	.000000	9.075518	12.10203	1173.897	.2426654E-03	.000000	.000000	3.963192	13.58720	1.233967	-.5428820	16.25953	16.27274	46.70635	-.1072061E-03	16.68591	-953.0872	167.0492	25.36467	-3.106849	-2898.905	24.67529	1922.338	22.87086	-48.41451	-3.106849	-6306.333	296.8401	518.2675	22.86488
    0.1313	3.000000	.6655069E-07	.000000	.7392861E-03	4.878707	.000000	.000000	.2560089E-03	.000000	.7401790E-03	-.1350055E-14	.000000	.000000	9.529343	12.10223	1173.916	.2560089E-03	.000000	.000000	4.144591	12.94982	1.216725	-.5681576	16.27240	17.02463	45.40432	-.1089150E-03	17.45716	-950.9036	174.9215	28.78749	-3.260479	-2899.585	25.81803	1936.053	23.72827	-55.94795	-3.260479	-6307.019	311.4413	296.0720	23.72166
    0.1375	3.000000	.5753530E-07	.000000	.7834990E-03	4.886628	.000000	.000000	.2680476E-03	.000000	.7844452E-03	.6743483E-16	.000000	.000000	9.983168	12.10244	1173.937	.2680476E-03	.000000	.000000	4.325910	13.77122	1.276613	-.5934399	16.28458	17.77651	47.91304	-.1187613E-03	18.22842	-945.0032	182.7939	31.85150	-3.414500	-2900.187	27.01876	1951.864	25.23972	-62.45123	-3.414500	-6307.624	326.1349	112.4140	25.23248
    0.1438	3.000000	.6657103E-07	.000000	.9004869E-03	4.894549	.000000	.000000	.2786332E-03	.000000	.9015744E-03	.9756151E-15	.000000	.000000	10.43702	12.10266	1173.958	.2786332E-03	.000000	.000000	4.508453	15.94216	1.407532	-.6188201	16.29599	18.53220	53.93996	-.1437504E-03	19.00355	-935.7067	190.6766	34.52050	-3.568990	-2900.705	28.28480	1969.309	27.44312	-67.86488	-3.568990	-6308.143	340.9350	-31.65969	27.43525
    0.1500	3.000000	.7687933E-07	.000000	.1057839E-02	4.902471	.000000	.000000	.2876401E-03	.000000	.1059117E-02	.1336516E-15	.000000	.000000	10.89087	12.10289	1173.981	.2876401E-03	.000000	.000000	4.693137	18.85397	1.576372	-.6443576	16.30667	19.29433	61.87452	-.1739577E-03	19.78520	-924.6709	198.5760	36.76846	-3.723780	-2901.139	29.59844	1986.702	30.10994	-72.23820	-3.723780	-6308.582	355.8091	-141.2323	30.10144
    0.1562	3.000000	.4807938E-07	.000000	.1207599E-02	4.910392	.000000	.000000	.2949653E-03	.000000	.1209058E-02	-.4493476E-15	.000000	.000000	11.34472	12.10313	1174.004	.2949653E-03	.000000	.000000	4.880296	21.61349	1.734645	-.6700769	16.31668	20.06387	69.35559	-.2064587E-03	20.57434	-914.3135	206.4950	38.57737	-3.878499	-2901.492	30.92208	2001.678	32.80737	-75.68729	-3.878499	-6308.937	370.6870	-225.0175	32.79826
    0.1625	3.000000	.4314693E-07	.000000	.1303129E-02	4.918314	.000000	.000000	.3005264E-03	.000000	.1304703E-02	.1098678E-14	.000000	.000000	11.79860	12.10338	1174.028	.3005264E-03	.000000	.000000	5.069643	23.35725	1.835498	-.6959668	16.32610	20.84015	74.10096	-.2315563E-03	21.37032	-906.9685	214.4355	39.93409	-4.032693	-2901.768	32.21110	2011.984	35.04337	-78.33358	-4.032693	-6309.216	385.4842	-291.6899	35.03371
    0.1688	3.000000	.8333525E-07	.000000	.1315438E-02	4.926235	.000000	.000000	.3042613E-03	.000000	.1317026E-02	-.1634276E-14	.000000	.000000	12.25248	12.10364	1174.053	.3042613E-03	.000000	.000000	5.260533	23.55379	1.850082	-.7219986	16.33497	21.62159	74.70575	-.2435274E-03	22.17155	-904.0743	222.4006	40.82742	-4.185992	-2901.969	33.43057	2016.231	36.44490	-80.24505	-4.185992	-6309.418	400.1332	-346.3773	36.43475
    0.1750	3.000000	.8070238E-07	.000000	.1243238E-02	4.934157	.000000	.000000	.3061265E-03	.000000	.1244739E-02	.4668659E-15	.000000	.000000	12.70639	12.10391	1174.079	.3061265E-03	.000000	.000000	5.452226	22.18795	1.777531	-.7481515	16.34329	22.40657	71.12894	-.2383926E-03	22.97641	-905.6782	230.3971	41.24652	-4.338250	-2902.093	34.56913	2014.355	36.90364	-81.40084	-4.338250	-6309.542	414.6096	-388.5452	36.89308
    0.1813	3.000000	.1569668E-06	.000000	.1113215E-02	4.942080	.000000	.000000	.3060979E-03	.000000	.1114559E-02	.2498122E-14	.000000	.000000	13.16027	12.10419	1174.106	.3060979E-03	.000000	.000000	5.644319	19.76290	1.645079	-.7744266	16.35096	23.19449	64.69891	-.2210821E-03	23.78432	-910.4307	238.4359	41.18142	-4.489605	-2902.134	35.64503	2007.606	36.63187	-81.69189	-4.489605	-6309.583	428.9442	-412.0104	36.62098
    0.1875	3.000000	.1282213E-06	.000000	.9704875E-03	4.950002	.000000	.000000	.3041728E-03	.000000	.9716596E-03	.6979399E-15	.000000	.000000	13.61421	12.10448	1174.134	.3041728E-03	.000000	.000000	5.836927	17.12024	1.498321	-.8008633	16.35789	23.98626	57.63849	-.1981637E-03	24.59622	-916.0684	246.5312	40.62520	-4.640450	-2902.084	36.70129	1998.091	36.10176	-80.95702	-4.640450	-6309.533	443.2142	-407.0751	36.09061
    0.1938	3.000000	.1295209E-06	.000000	.8626561E-03	4.957924	.000000	.000000	.3003717E-03	.000000	.8636980E-03	.1163029E-14	.000000	.000000	14.06811	12.10477	1174.163	.3003717E-03	.000000	.000000	6.030766	15.14250	1.385107	-.8275312	16.36396	24.78432	52.27941	-.1823183E-03	25.41460	-920.2122	254.6978	39.57715	-4.791288	-2901.936	37.79128	1988.035	35.88372	-79.04138	-4.791288	-6309.383	457.5175	-363.9952	35.87237
    0.2000	3.000000	.2093533E-06	.000000	.8230909E-03	4.965847	.000000	.000000	.2947410E-03	.000000	.8240850E-03	.5019737E-15	.000000	.000000	14.52205	12.10508	1174.193	.2947410E-03	.000000	.000000	6.226912	14.44333	1.338763	-.8545131	16.36913	25.59196	50.24421	-.1797356E-03	26.24280	-921.2009	262.9477	38.04585	-4.942553	-2901.686	38.95951	1979.010	36.43880	-75.85701	-4.942553	-6309.131	471.9365	-276.5826	36.42732
    0.2063	3.000000	.1268718E-06	.000000	.8593422E-03	4.973770	.000000	.000000	.2873538E-03	.000000	.8603800E-03	.2133007E-14	.000000	.000000	14.97601	12.10540	1174.223	.2873538E-03	.000000	.000000	6.426485	15.15433	1.366546	-.8818797	16.37343	26.41233	51.88334	-.1948281E-03	27.08400	-918.6617	271.2871	36.05090	-5.094435	-2901.338	40.22466	1971.417	37.94028	-71.42341	-5.094435	-6308.780	486.5067	-144.6383	37.92872
    0.2125	3.000000	.1205516E-06	.000000	.9507165E-03	4.981693	.000000	.000000	.2783093E-03	.000000	.9518647E-03	-.2138182E-14	.000000	.000000	15.42997	12.10572	1174.255	.2783093E-03	.000000	.000000	6.630266	16.88309	1.447369	-.9096710	16.37698	27.24741	56.16411	-.2206817E-03	27.94019	-913.6279	279.7154	33.62265	-5.246798	-2900.902	41.57133	1964.387	40.19259	-65.87452	-5.246798	-6308.339	501.2006	25.61060	40.18103
    0.2188	3.000000	.1109407E-06	.000000	.1055819E-02	4.989616	.000000	.000000	.2677305E-03	.000000	.1057094E-02	-.2241898E-14	.000000	.000000	15.88393	12.10606	1174.288	.2677305E-03	.000000	.000000	6.838441	18.85594	1.539519	-.9378777	16.37996	28.09738	61.04776	-.2532360E-03	28.81151	-908.1515	288.2255	30.80011	-5.399204	-2900.390	42.95396	1956.152	42.68322	-59.42918	-5.399204	-6307.825	515.9341	223.2256	42.67173
    0.2250	3.000000	.7353425E-07	.000000	.1127350E-02	4.997540	.000000	.000000	.2557602E-03	.000000	.1128711E-02	-.1447637E-14	.000000	.000000	16.33792	12.10641	1174.321	.2557602E-03	.000000	.000000	7.050542	20.19450	1.595634	-.9664493	16.38256	28.96052	64.21922	-.2787491E-03	29.69625	-904.5645	296.8063	27.62773	-5.551062	-2899.818	44.31221	1944.720	44.75499	-52.33620	-5.551062	-6307.250	530.5953	435.7944	44.74368
    0.2313	3.000000	.2710632E-07	.000000	.1128914E-02	5.005463	.000000	.000000	.2425569E-03	.000000	.1130277E-02	.2180231E-14	.000000	.000000	16.79191	12.10676	1174.356	.2425569E-03	.000000	.000000	7.265583	20.22756	1.579584	-.9953098	16.38497	29.83380	63.91098	-.2865849E-03	30.59130	-904.6387	305.4466	24.15180	-5.701836	-2899.201	45.59233	1928.650	45.84109	-44.81237	-5.701836	-6306.629	545.0828	653.0856	45.83006
    0.2375	3.000000	.7162042E-07	.000000	.1047911E-02	5.013387	.000000	.000000	.2282908E-03	.000000	.1049176E-02	.2680334E-15	.000000	.000000	17.24593	12.10713	1174.392	.2282908E-03	.000000	.000000	7.482421	18.72879	1.479348	-1.024378	16.38731	30.71389	59.53057	-.2745278E-03	31.49330	-908.9501	314.1383	20.41804	-5.851236	-2898.549	46.76747	1907.611	45.67877	-36.99599	-5.851236	-6305.974	559.3448	869.7806	45.66811
    0.2438	3.000000	.8615610E-07	.000000	.9000017E-03	5.021311	.000000	.000000	.2131408E-03	.000000	.9010886E-03	.8703890E-15	.000000	.000000	17.69994	12.10751	1174.429	.2131408E-03	.000000	.000000	7.700073	15.99681	1.311345	-1.053598	16.38963	31.59811	51.87204	-.2423088E-03	32.39956	-916.6600	322.8777	16.47058	-5.999348	-2897.869	47.84852	1882.572	44.42188	-28.93084	-5.999348	-6305.291	573.3996	1086.409	44.41169
    0.2500	3.000000	.9333650E-07	.000000	.7236231E-03	5.029236	.000000	.000000	.1972935E-03	.000000	.7244971E-03	.2105866E-14	.000000	.000000	18.15399	12.10790	1174.467	.1972935E-03	.000000	.000000	7.918044	12.75043	1.114769	-1.082943	16.39194	32.48521	42.83942	-.2007619E-03	33.30882	-925.7996	331.6657	12.35278	-6.146597	-2897.163	48.88196	1855.527	42.60609	-20.58597	-6.146597	-6304.583	587.3312	1308.133	42.59646
    0.2563	3.000000	.1161127E-06	.000000	.5665321E-03	5.037161	.000000	.000000	.1809425E-03	.000000	.5672163E-03	.1288889E-14	.000000	.000000	18.60803	12.10830	1174.505	.1809425E-03	.000000	.000000	8.136386	9.876905	.9379488	-1.112423	16.39424	33.37543	34.78186	-.1619437E-03	34.22131	-933.9445	340.5047	8.109154	-6.293622	-2896.433	49.93418	1828.870	40.97315	-11.90378	-6.293622	-6303.849	601.2619	1541.862	40.96413
    0.2625	2.000000	.4939476E-04	.000000	.4691578E-03	5.045086	.000000	.000000	.1642886E-03	.000000	.4697244E-03	-.9291257E-15	.000000	.000000	19.06210	12.10872	1174.545	.1642886E-03	.000000	.000000	8.355600	8.122532	.8215874	-1.142062	16.39653	34.27005	29.67646	-.1359263E-03	35.13835	-939.0478	349.3948	3.787473	-6.441036	-2895.682	51.06799	1804.639	40.21244	-2.858151	-6.441036	-6303.096	615.3085	1792.739	40.20406
    0.2687	3.000000	.6178013E-07	.000000	.4506229E-03	5.053011	.000000	.000000	.1475389E-03	.000000	.4511672E-03	-.8619111E-15	.000000	.000000	19.51620	12.10914	1174.586	.1475389E-03	.000000	.000000	8.576312	7.834495	.7847797	-1.171884	16.39889	35.17047	28.44652	-.1375822E-03	36.06131	-940.1350	358.3307	-.5598063	-6.589211	-2894.917	52.31936	1783.898	40.71120	6.497530	-6.589211	-6302.330	629.5395	2061.239	40.70350
    0.2750	3.000000	.5707884E-09	.000000	.5023332E-03	5.060936	.000000	.000000	.1309056E-03	.000000	.5029399E-03	.6075784E-15	.000000	.000000	19.97030	12.10957	1174.629	.1309056E-03	.000000	.000000	8.798927	8.844499	.8186961	-1.201874	16.40147	36.07718	30.65389	-.1545770E-03	36.99067	-937.6182	367.2990	-4.875751	-6.738115	-2894.152	53.68309	1766.466	42.40517	16.01069	-6.738115	-6301.563	643.9467	2341.926	42.39816
    0.2812	3.000000	.3324192E-07	.000000	.5913476E-03	5.068862	.000000	.000000	.1146021E-03	.000000	.5920618E-03	.4842062E-14	.000000	.000000	20.42442	12.11002	1174.672	.1146021E-03	.000000	.000000	9.023346	10.53428	.8901259	-1.231983	16.40446	36.98904	34.67194	-.1858853E-03	37.92522	-933.1194	376.2786	-9.100488	-6.887323	-2893.401	55.11287	1751.082	44.78830	25.44423	-6.887323	-6300.812	658.4468	2624.283	44.78199
    0.2875	3.000000	.1081094E-06	.000000	.6722818E-03	5.076788	.000000	.000000	.9883949E-04	.000000	.6730937E-03	.1569145E-14	.000000	.000000	20.87855	12.11047	1174.716	.9883949E-04	.000000	.000000	9.248829	12.05877	.9535576	-1.262112	16.40807	37.90303	38.27470	-.2156653E-03	38.86189	-928.8739	385.2439	-13.17417	-7.036141	-2892.681	56.53631	1735.955	47.08377	34.52176	-7.036141	-6300.092	672.9064	2895.344	47.07820
    0.2938	3.000000	.2907691E-06	.000000	.7035051E-03	5.084715	.000000	.000000	.8382073E-04	.000000	.7043547E-03	.3364517E-14	.000000	.000000	21.33270	12.11094	1174.761	.8382073E-04	.000000	.000000	9.474123	12.64757	.9675007	-1.292133	16.41251	38.81479	39.43289	-.2338601E-03	39.79621	-926.9183	394.1685	-17.04024	-7.183863	-2892.010	57.88012	1719.488	48.52028	42.98701	-7.183863	-6299.421	687.1900	3143.190	48.51545
    0.3000	3.000000	.3209238E-06	.000000	.6619195E-03	5.092642	.000000	.000000	.6973649E-04	.000000	.6627189E-03	.2088920E-14	.000000	.000000	21.78685	12.11142	1174.807	.6973649E-04	.000000	.000000	9.697703	11.87824	.9092932	-1.321918	16.41792	39.71939	37.03569	-.2243213E-03	40.72321	-928.3567	403.0298	-20.64791	-7.330009	-2891.401	59.09629	1700.915	48.61619	50.65658	-7.330009	-6298.814	701.2081	3360.063	48.61208
    0.3063	3.000000	.3738110E-06	.000000	.5511279E-03	5.100569	.000000	.000000	.5676145E-04	.000000	.5517935E-03	-.4824718E-14	.000000	.000000	22.24106	12.11191	1174.855	.5676145E-04	.000000	.000000	9.918192	9.825596	.7831865	-1.351362	16.42436	40.61270	31.28506	-.1918099E-03	41.63866	-932.9590	411.8126	-23.95365	-7.474522	-2890.860	60.18025	1680.645	47.36887	57.44910	-7.474522	-6298.273	714.9508	3544.078	47.36546
    0.3125	3.000000	.3469463E-06	.000000	.4001610E-03	5.108496	.000000	.000000	.4505237E-04	.000000	.4006443E-03	.2441954E-14	.000000	.000000	22.69527	12.11241	1174.903	.4505237E-04	.000000	.000000	10.13464	7.035130	.6189110	-1.380397	16.43184	41.49187	23.62565	-.1428908E-03	42.53973	-939.2314	420.5086	-26.92098	-7.617791	-2890.389	61.17356	1660.177	45.27673	63.38027	-7.617791	-6297.803	728.4938	3698.897	45.27398
    0.3188	3.000000	.4411735E-06	.000000	.2532593E-03	5.116424	.000000	.000000	.3474761E-04	.000000	.2535652E-03	.1588785E-14	.000000	.000000	23.14948	12.11292	1174.953	.3474761E-04	.000000	.000000	10.34673	4.330954	.4612705	-1.409000	16.44034	42.35601	16.23751	-.9167713E-04	43.42546	-944.9333	429.1150	-29.51917	-7.760525	-2889.988	62.15025	1641.631	43.18045	68.52653	-7.760525	-6297.402	741.9735	3831.543	43.17829
    0.3250	3.000000	.3947962E-06	.000000	.1543535E-03	5.124352	.000000	.000000	.2596767E-04	.000000	.1545399E-03	-.1383162E-14	.000000	.000000	23.60374	12.11344	1175.004	.2596767E-04	.000000	.000000	10.55468	2.526612	.3544784	-1.437180	16.44981	43.20560	11.27239	-.5803068E-04	44.29639	-947.8560	437.6304	-31.72145	-7.903511	-2889.655	63.19062	1627.054	41.97481	72.97104	-7.903511	-6297.071	755.5391	3949.143	41.97318
    0.3313	3.000000	.2885964E-06	.000000	.1317227E-03	5.132280	.000000	.000000	.1881581E-04	.000000	.1318818E-03	.1858407E-14	.000000	.000000	24.05800	12.11397	1175.055	.1881581E-04	.000000	.000000	10.75903	2.140944	.3267587	-1.464958	16.46023	44.04191	10.10313	-.4704592E-04	45.15375	-946.5858	446.0502	-33.50356	-8.047324	-2889.390	64.35233	1617.758	42.29160	76.75125	-8.047324	-6296.807	769.2986	4055.765	42.29039
    0.3375	3.000000	.5596891E-06	.000000	.1882195E-03	5.140209	.000000	.000000	.1337819E-04	.000000	.1884468E-03	-.6104702E-15	.000000	.000000	24.51226	12.11451	1175.108	.1337819E-04	.000000	.000000	10.96029	3.218715	.3806241	-1.492331	16.47165	44.86579	12.84990	-.7269050E-04	45.99839	-940.9896	454.3636	-34.84319	-8.192111	-2889.197	65.64845	1613.912	44.26711	79.82654	-8.192111	-6296.616	783.2778	4150.456	44.26623
    0.3438	3.000000	.5529250E-06	.000000	.3004622E-03	5.148138	.000000	.000000	.9722839E-05	.000000	.3008250E-03	-.1875228E-14	.000000	.000000	24.96658	12.11506	1175.161	.9722839E-05	.000000	.000000	11.15861	5.318498	.4922128	-1.519272	16.48414	45.67690	18.34795	-.1168306E-03	46.82992	-932.2471	462.5528	-35.72079	-8.337526	-2889.082	67.04115	1614.528	47.48130	82.07781	-8.337526	-6296.503	797.4089	4227.171	47.48065
    0.3500	3.000000	.6110997E-06	.000000	.4272253E-03	5.156068	.000000	.000000	.7897662E-05	.000000	.4277413E-03	-.5009383E-14	.000000	.000000	25.42090	12.11562	1175.215	.7897662E-05	.000000	.000000	11.35361	7.670975	.6198602	-1.545710	16.49780	46.47330	24.56569	-.1724492E-03	47.64635	-922.4254	470.5956	-36.12119	-8.482841	-2889.056	68.45361	1617.850	51.09511	83.33852	-8.482841	-6296.475	811.5508	4276.620	51.09457
    0.3563	3.000000	.7764791E-06	.000000	.5240288E-03	5.163998	.000000	.000000	.7927803E-05	.000000	.5246617E-03	.2329222E-14	.000000	.000000	25.87524	12.11619	1175.271	.7927803E-05	.000000	.000000	11.54439	9.451150	.7188451	-1.571543	16.51272	47.25175	29.32356	-.2146134E-03	48.44436	-913.7473	478.4693	-36.03563	-8.627188	-2889.125	69.79630	1621.987	54.14238	83.44645	-8.627188	-6296.544	825.5384	4289.339	54.14183
    0.3625	3.000000	.8038749E-06	.000000	.5587642E-03	5.171928	.000000	.000000	.9813206E-05	.000000	.5594390E-03	-.1794880E-15	.000000	.000000	26.32961	12.11677	1175.327	.9813206E-05	.000000	.000000	11.72977	10.06816	.7570967	-1.596676	16.52897	48.00842	31.05962	-.2316263E-03	49.22007	-907.8109	486.1566	-35.46350	-8.769874	-2889.293	70.99858	1625.588	55.87514	82.29764	-8.769874	-6296.713	839.2399	4258.933	55.87444
    0.3688	3.000000	.8636954E-06	.000000	.5228666E-03	5.179858	.000000	.000000	.1352713E-04	.000000	.5234981E-03	-.3630925E-14	.000000	.000000	26.78401	12.11736	1175.384	.1352713E-04	.000000	.000000	11.90860	9.370809	.7263355	-1.621026	16.54653	48.74003	29.37259	-.2196044E-03	49.97018	-905.0343	493.6485	-34.41319	-8.910627	-2889.562	72.03437	1628.299	56.03927	79.88391	-8.910627	-6296.981	852.6060	4184.327	56.03830
    0.3750	3.000000	.7445447E-06	.000000	.4341337E-03	5.187789	.000000	.000000	.1901618E-04	.000000	.4346581E-03	-.2239555E-14	.000000	.000000	27.23841	12.11796	1175.442	.1901618E-04	.000000	.000000	12.08019	7.697221	.6447701	-1.644566	16.56532	49.44489	25.15304	-.1838611E-03	50.69299	-904.5228	500.9471	-32.90157	-9.049707	-2889.924	72.93266	1630.857	54.97925	76.30048	-9.049707	-6297.341	865.6881	4070.250	54.97787
    0.3813	3.000000	.5721406E-06	.000000	.3302524E-03	5.195721	.000000	.000000	.2620196E-04	.000000	.3306512E-03	-.4671242E-14	.000000	.000000	27.69286	12.11857	1175.501	.2620196E-04	.000000	.000000	12.24449	5.751967	.5504468	-1.667317	16.58520	50.12335	20.25906	-.1427241E-03	51.38882	-904.3975	508.0630	-30.95269	-9.187819	-2890.370	73.76822	1634.793	53.52979	71.72164	-9.187819	-6297.786	878.6225	3925.807	53.52787
    0.3875	3.000000	.2803363E-06	.000000	.2553607E-03	5.203652	.000000	.000000	.3498395E-04	.000000	.2556691E-03	-.3001512E-15	.000000	.000000	28.14732	12.11918	1175.561	.3498395E-04	.000000	.000000	12.40208	4.354944	.4876455	-1.689349	16.60602	50.77757	16.85306	-.1103727E-03	52.05995	-902.4721	515.0120	-28.59594	-9.325871	-2890.890	74.63574	1641.849	52.72797	66.35327	-9.325871	-6298.304	891.5836	3761.645	52.72536
    0.3938	3.000000	.3213759E-06	.000000	.2444057E-03	5.211585	.000000	.000000	.4524296E-04	.000000	.2447009E-03	.3262473E-14	.000000	.000000	28.60180	12.11980	1175.621	.4524296E-04	.000000	.000000	12.55403	4.150923	.4911394	-1.710749	16.62764	51.41101	16.63448	-.1066426E-03	52.70988	-897.0329	521.8093	-25.86422	-9.464640	-2891.470	75.61648	1653.321	53.44481	60.37847	-9.464640	-6298.885	904.7211	3586.724	53.44139
    0.4000	3.000000	.4664416E-06	.000000	.3108020E-03	5.219517	.000000	.000000	.5684435E-04	.000000	.3111774E-03	.7189870E-15	.000000	.000000	29.05631	12.12043	1175.682	.5684435E-04	.000000	.000000	12.70152	5.381955	.5738600	-1.731611	16.64997	52.02724	20.23858	-.1389904E-03	53.34220	-887.4547	528.4656	-22.79283	-9.604506	-2892.106	76.74858	1669.557	56.06690	53.91565	-9.604506	-6299.520	918.1061	3405.809	56.06255
    0.4062	3.000000	.4197657E-06	.000000	.4417069E-03	5.227450	.000000	.000000	.6964029E-04	.000000	.4422404E-03	-.5351266E-15	.000000	.000000	29.51084	12.12107	1175.744	.6964029E-04	.000000	.000000	12.84556	7.802221	.7222800	-1.751990	16.67293	52.62897	27.01146	-.1973686E-03	53.95965	-874.4287	534.9847	-19.41925	-9.745282	-2892.790	78.01244	1689.789	60.34351	47.00329	-9.745282	-6300.203	931.7028	3218.570	60.33809
    0.4125	3.000000	.4742824E-06	.000000	.6025278E-03	5.235384	.000000	.000000	.8347109E-04	.000000	.6032554E-03	-.2936014E-14	.000000	.000000	29.96538	12.12171	1175.806	.8347109E-04	.000000	.000000	12.98659	10.76442	.9010895	-1.771908	16.69651	53.21735	35.23814	-.2710197E-03	54.56340	-859.7308	541.3647	-15.78355	-9.886268	-2893.521	79.33640	1712.350	65.45802	39.61580	-9.886268	-6300.932	945.3782	3020.555	65.45141
    0.4188	3.000000	.5337324E-06	.000000	.7490274E-03	5.243318	.000000	.000000	.9816549E-04	.000000	.7499320E-03	.1263963E-14	.000000	.000000	30.41997	12.12237	1175.870	.9816549E-04	.000000	.000000	13.12461	13.44642	1.065483	-1.791357	16.72072	53.79216	42.74139	-.3445420E-03	55.15321	-845.6108	547.6016	-11.92914	-10.02650	-2894.297	80.62147	1735.198	70.30321	31.70451	-10.02650	-6301.708	958.9490	2805.682	70.29533
    0.4250	3.000000	.4693300E-06	.000000	.8427379E-03	5.251252	.000000	.000000	.1135409E-03	.000000	.8437557E-03	-.3674121E-14	.000000	.000000	30.87456	12.12302	1175.933	.1135409E-03	.000000	.000000	13.25914	15.13777	1.176694	-1.810307	16.74553	54.35217	47.63865	-.3938645E-03	55.72783	-834.0203	553.6945	-7.903268	-10.16507	-2895.115	81.77602	1756.554	73.86619	23.24853	-10.16507	-6302.526	972.2437	2569.340	73.85694